<?xml version="1.0" encoding="UTF-8"?>

<!-- generated on 2023-10-02 11:47:31 by Eclipse SUMO sumo Version 1.12.0
<configuration xmlns:xsi="http://www.w3.org/2001/XMLSchema-instance" xsi:noNamespaceSchemaLocation="http://sumo.dlr.de/xsd/sumoConfiguration.xsd">

    <input>
        <net-file value="../../InTAS/scenario/ingolstadt.net.xml"/>
        <route-files value="../../InTAS/scenario/routes/InTAS_emv_6_8.5.rou.xml,../../InTAS/scenario/routes/InTAS_003.rou.xml,../../InTAS/scenario/routes/InTAS_004.rou.xml,../../InTAS/scenario/routes/InTAS_005.rou.xml,../../InTAS/scenario/routes/InTAS_006.rou.xml,../../InTAS/scenario/routes/InTAS_007.rou.xml"/>
        <additional-files value="../../InTAS/scenario/BusStations.add.xml,../../InTAS/scenario/InTAS_E1.add.xml,../../InTAS/scenario/InTAS.poly.xml"/>
    </input>

    <output>
        <summary-output value="../../InTAS/scenario/InTAS.simulation.summary.xml"/>
        <tripinfo-output value="../../InTAS/scenario/InTAS.simulation.tripinfo.xml"/>
        <statistic-output value="../../InTAS/scenario/InTAS.simulation.statistic.xml"/>
    </output>

    <time>
        <begin value="19000"/>
        <step-length value="1"/>
    </time>

    <processing>
        <threads value="1"/>
        <lateral-resolution value="1"/>
        <route-steps value="200"/>
        <ignore-junction-blocker value="15"/>
        <ignore-route-errors value="true"/>
        <time-to-teleport value="300"/>
        <time-to-teleport.highways value="300"/>
        <max-depart-delay value="300"/>
        <default.carfollowmodel value="Krauss"/>
        <parking.maneuver value="true"/>
        <pedestrian.model value="striping"/>
        <pedestrian.striping.stripe-width value="0.55"/>
        <pedestrian.striping.jamtime value="30"/>
    </processing>

    <routing>
        <routing-algorithm value="dijkstra"/>
        <persontrip.transfer.car-walk value="allJunctions"/>
        <device.rerouting.probability value="0.82"/>
        <device.rerouting.explicit value="default_001,default_002,default_003,default_004,default_005,default_006,default_007,default_008,default_009,default_010,default_011,default_012,default_013,default_014,default_015,default_016,default_017,default_018,default_019,default_020,default_021,default_022,random_001,random_002,random_003,random_004,random_005,random_006,random_007,random_008,random_009,random_010,random_011,random_012,random_013,random_014,random_015,random_016,random_017,random_018,random_019,random_020,random_021,random_022"/>
        <device.rerouting.period value="300"/>
        <device.rerouting.threads value="1"/>
        <device.rerouting.synchronize value="true"/>
    </routing>

    <report>
        <verbose value="true"/>
        <no-warnings value="true"/>
        <log value="../../InTAS/scenario/InTAS.simulation.log"/>
        <duration-log.statistics value="true"/>
    </report>

    <bluelight_device>
        <device.bluelight.explicit value="emv_0,emv_1,emv_2,emv_3,emv_4,emv_5,emv_6,emv_7,emv_8,emv_9,emv_10"/>
        <device.bluelight.reactiondist value="300"/>
    </bluelight_device>

    <tripinfo_device>
        <device.tripinfo.probability value="0"/>
    </tripinfo_device>

    <traci_server>
        <remote-port value="55019"/>
    </traci_server>

    <gui_only>
        <gui-settings-file value="../../InTAS/scenario/InTAS.view.xml"/>
        <tracker-interval value="1"/>
    </gui_only>

</configuration>
-->

<tripinfos xmlns:xsi="http://www.w3.org/2001/XMLSchema-instance" xsi:noNamespaceSchemaLocation="http://sumo.dlr.de/xsd/tripinfo_file.xsd">
    <tripinfo id="emv_0" depart="21600.00" departLane="25122830#0_1" departPos="6.60" departPosLat="0.00" departSpeed="12.50" departDelay="0.00" arrival="21728.00" arrivalLane="-315358246_1" arrivalPos="99.50" arrivalPosLat="0.00" arrivalSpeed="19.93" duration="128.00" routeLength="2352.16" waitingTime="0.00" waitingCount="0" stopTime="0.00" timeLoss="9.56" rerouteNo="1" devices="tripinfo_emv_0 routing_emv_0 bluelight_emv_0" vType="emergency_veh" speedFactor="1.50" vaporized="">
        <bluelight/>
    </tripinfo>
    <tripinfo id="emv_1" depart="22500.00" departLane="25122830#0_1" departPos="6.60" departPosLat="0.00" departSpeed="12.50" departDelay="0.00" arrival="22669.00" arrivalLane="-315358246_1" arrivalPos="99.50" arrivalPosLat="-0.52" arrivalSpeed="20.66" duration="169.00" routeLength="2352.16" waitingTime="20.00" waitingCount="3" stopTime="0.00" timeLoss="51.33" rerouteNo="1" devices="tripinfo_emv_1 routing_emv_1 bluelight_emv_1" vType="emergency_veh" speedFactor="1.50" vaporized="">
        <bluelight/>
    </tripinfo>
    <tripinfo id="emv_2" depart="23400.00" departLane="25122830#0_1" departPos="6.60" departPosLat="0.00" departSpeed="12.50" departDelay="0.00" arrival="23560.00" arrivalLane="-315358246_2" arrivalPos="99.50" arrivalPosLat="-0.12" arrivalSpeed="20.20" duration="160.00" routeLength="2350.11" waitingTime="7.00" waitingCount="1" stopTime="0.00" timeLoss="42.08" rerouteNo="1" devices="tripinfo_emv_2 routing_emv_2 bluelight_emv_2" vType="emergency_veh" speedFactor="1.50" vaporized="">
        <bluelight/>
    </tripinfo>
    <tripinfo id="emv_3" depart="24300.00" departLane="25122830#0_1" departPos="6.60" departPosLat="0.00" departSpeed="12.50" departDelay="0.00" arrival="24465.00" arrivalLane="-315358246_2" arrivalPos="99.50" arrivalPosLat="-0.12" arrivalSpeed="20.50" duration="165.00" routeLength="2352.16" waitingTime="5.00" waitingCount="2" stopTime="0.00" timeLoss="47.07" rerouteNo="1" devices="tripinfo_emv_3 routing_emv_3 bluelight_emv_3" vType="emergency_veh" speedFactor="1.50" vaporized="">
        <bluelight/>
    </tripinfo>
    <tripinfo id="emv_4" depart="25200.00" departLane="25122830#0_1" departPos="6.60" departPosLat="0.00" departSpeed="12.50" departDelay="0.00" arrival="25344.00" arrivalLane="-315358246_2" arrivalPos="99.50" arrivalPosLat="-0.12" arrivalSpeed="19.87" duration="144.00" routeLength="2243.63" waitingTime="1.00" waitingCount="1" stopTime="0.00" timeLoss="21.97" rerouteNo="1" devices="tripinfo_emv_4 routing_emv_4 bluelight_emv_4" vType="emergency_veh" speedFactor="1.50" vaporized="">
        <bluelight/>
    </tripinfo>
    <tripinfo id="emv_5" depart="26100.00" departLane="25122830#0_1" departPos="6.60" departPosLat="0.00" departSpeed="12.50" departDelay="0.00" arrival="26282.00" arrivalLane="-315358246_1" arrivalPos="99.50" arrivalPosLat="1.48" arrivalSpeed="19.67" duration="182.00" routeLength="2352.16" waitingTime="16.00" waitingCount="3" stopTime="0.00" timeLoss="63.97" rerouteNo="1" devices="tripinfo_emv_5 routing_emv_5 bluelight_emv_5" vType="emergency_veh" speedFactor="1.50" vaporized="">
        <bluelight/>
    </tripinfo>
    <tripinfo id="emv_6" depart="27000.00" departLane="25122830#0_1" departPos="6.60" departPosLat="0.00" departSpeed="12.50" departDelay="0.00" arrival="27237.00" arrivalLane="-315358246_2" arrivalPos="99.50" arrivalPosLat="-0.12" arrivalSpeed="20.03" duration="237.00" routeLength="2340.94" waitingTime="49.00" waitingCount="4" stopTime="0.00" timeLoss="92.28" rerouteNo="1" devices="tripinfo_emv_6 routing_emv_6 bluelight_emv_6" vType="emergency_veh" speedFactor="1.50" vaporized="">
        <bluelight/>
    </tripinfo>
    <tripinfo id="emv_7" depart="27900.00" departLane="25122830#0_1" departPos="6.60" departPosLat="0.00" departSpeed="12.50" departDelay="0.00" arrival="28089.00" arrivalLane="-315358246_2" arrivalPos="99.50" arrivalPosLat="-0.12" arrivalSpeed="20.00" duration="189.00" routeLength="2333.49" waitingTime="6.00" waitingCount="2" stopTime="0.00" timeLoss="68.41" rerouteNo="1" devices="tripinfo_emv_7 routing_emv_7 bluelight_emv_7" vType="emergency_veh" speedFactor="1.50" vaporized="">
        <bluelight/>
    </tripinfo>
    <tripinfo id="emv_8" depart="28800.00" departLane="25122830#0_1" departPos="6.60" departPosLat="0.00" departSpeed="12.50" departDelay="0.00" arrival="28968.00" arrivalLane="-315358246_2" arrivalPos="99.50" arrivalPosLat="-0.12" arrivalSpeed="20.58" duration="168.00" routeLength="2350.11" waitingTime="0.00" waitingCount="0" stopTime="0.00" timeLoss="50.50" rerouteNo="1" devices="tripinfo_emv_8 routing_emv_8 bluelight_emv_8" vType="emergency_veh" speedFactor="1.50" vaporized="">
        <bluelight/>
    </tripinfo>
    <tripinfo id="emv_9" depart="29700.00" departLane="25122830#0_1" departPos="6.60" departPosLat="0.00" departSpeed="12.50" departDelay="0.00" arrival="29861.00" arrivalLane="-315358246_2" arrivalPos="99.50" arrivalPosLat="-0.72" arrivalSpeed="20.55" duration="161.00" routeLength="2350.11" waitingTime="1.00" waitingCount="1" stopTime="0.00" timeLoss="42.95" rerouteNo="1" devices="tripinfo_emv_9 routing_emv_9 bluelight_emv_9" vType="emergency_veh" speedFactor="1.50" vaporized="">
        <bluelight/>
    </tripinfo>
    <tripinfo id="emv_10" depart="30600.00" departLane="25122830#0_1" departPos="6.60" departPosLat="0.00" departSpeed="12.50" departDelay="0.00" arrival="30803.00" arrivalLane="-315358246_2" arrivalPos="99.50" arrivalPosLat="-0.12" arrivalSpeed="20.82" duration="203.00" routeLength="2350.11" waitingTime="26.00" waitingCount="3" stopTime="0.00" timeLoss="85.25" rerouteNo="1" devices="tripinfo_emv_10 routing_emv_10 bluelight_emv_10" vType="emergency_veh" speedFactor="1.50" vaporized="">
        <bluelight/>
    </tripinfo>
</tripinfos>
