<?xml version="1.0" encoding="UTF-8"?>

<!-- generated on 2023-10-02 12:52:54 by Eclipse SUMO sumo Version 1.12.0
<configuration xmlns:xsi="http://www.w3.org/2001/XMLSchema-instance" xsi:noNamespaceSchemaLocation="http://sumo.dlr.de/xsd/sumoConfiguration.xsd">

    <input>
        <net-file value="../../InTAS/scenario/ingolstadt.net.xml"/>
        <route-files value="../../InTAS/scenario/routes/InTAS_emv_6_8.5.rou.xml,../../InTAS/scenario/routes/InTAS_003.rou.xml,../../InTAS/scenario/routes/InTAS_004.rou.xml,../../InTAS/scenario/routes/InTAS_005.rou.xml,../../InTAS/scenario/routes/InTAS_006.rou.xml,../../InTAS/scenario/routes/InTAS_007.rou.xml"/>
        <additional-files value="../../InTAS/scenario/BusStations.add.xml,../../InTAS/scenario/InTAS_E1.add.xml,../../InTAS/scenario/InTAS.poly.xml"/>
    </input>

    <output>
        <summary-output value="../../InTAS/scenario/InTAS.simulation.summary.xml"/>
        <tripinfo-output value="../../InTAS/scenario/InTAS.simulation.tripinfo.xml"/>
        <statistic-output value="../../InTAS/scenario/InTAS.simulation.statistic.xml"/>
    </output>

    <time>
        <begin value="19000"/>
        <step-length value="1"/>
    </time>

    <processing>
        <threads value="1"/>
        <route-steps value="200"/>
        <ignore-junction-blocker value="15"/>
        <time-to-teleport value="300"/>
        <time-to-teleport.highways value="300"/>
        <max-depart-delay value="300"/>
        <default.carfollowmodel value="Krauss"/>
        <parking.maneuver value="true"/>
        <pedestrian.model value="striping"/>
        <pedestrian.striping.stripe-width value="0.55"/>
        <pedestrian.striping.jamtime value="30"/>
    </processing>

    <routing>
        <routing-algorithm value="dijkstra"/>
        <persontrip.transfer.car-walk value="allJunctions"/>
        <device.rerouting.probability value="0.82"/>
        <device.rerouting.explicit value="default_001,default_002,default_003,default_004,default_005,default_006,default_007,default_008,default_009,default_010,default_011,default_012,default_013,default_014,default_015,default_016,default_017,default_018,default_019,default_020,default_021,default_022,random_001,random_002,random_003,random_004,random_005,random_006,random_007,random_008,random_009,random_010,random_011,random_012,random_013,random_014,random_015,random_016,random_017,random_018,random_019,random_020,random_021,random_022"/>
        <device.rerouting.period value="300"/>
        <device.rerouting.threads value="1"/>
        <device.rerouting.synchronize value="true"/>
    </routing>

    <report>
        <verbose value="true"/>
        <no-warnings value="true"/>
        <log value="../../InTAS/scenario/InTAS.simulation.log"/>
        <duration-log.statistics value="true"/>
    </report>

    <tripinfo_device>
        <device.tripinfo.probability value="0"/>
    </tripinfo_device>

    <traci_server>
        <remote-port value="57799"/>
    </traci_server>

    <gui_only>
        <gui-settings-file value="../../InTAS/scenario/InTAS.view.xml"/>
        <tracker-interval value="1"/>
    </gui_only>

</configuration>
-->

<tripinfos xmlns:xsi="http://www.w3.org/2001/XMLSchema-instance" xsi:noNamespaceSchemaLocation="http://sumo.dlr.de/xsd/tripinfo_file.xsd">
    <tripinfo id="emv_0" depart="21600.00" departLane="25122830#0_1" departPos="6.60" departSpeed="12.50" departDelay="0.00" arrival="21808.00" arrivalLane="-315358246_1" arrivalPos="99.50" arrivalSpeed="19.89" duration="208.00" routeLength="2350.11" waitingTime="51.00" waitingCount="2" stopTime="0.00" timeLoss="90.19" rerouteNo="1" devices="tripinfo_emv_0 routing_emv_0" vType="emergency_veh" speedFactor="1.50" vaporized=""/>
    <tripinfo id="emv_1" depart="22500.00" departLane="25122830#0_1" departPos="6.60" departSpeed="12.50" departDelay="0.00" arrival="22723.00" arrivalLane="-315358246_2" arrivalPos="99.50" arrivalSpeed="19.62" duration="223.00" routeLength="2352.16" waitingTime="44.00" waitingCount="4" stopTime="0.00" timeLoss="104.93" rerouteNo="1" devices="tripinfo_emv_1 routing_emv_1" vType="emergency_veh" speedFactor="1.50" vaporized=""/>
    <tripinfo id="emv_2" depart="23400.00" departLane="25122830#0_1" departPos="6.60" departSpeed="12.50" departDelay="0.00" arrival="23623.00" arrivalLane="-315358246_2" arrivalPos="99.50" arrivalSpeed="15.50" duration="223.00" routeLength="2243.63" waitingTime="29.00" waitingCount="3" stopTime="0.00" timeLoss="100.74" rerouteNo="1" devices="tripinfo_emv_2 routing_emv_2" vType="emergency_veh" speedFactor="1.50" vaporized=""/>
    <tripinfo id="emv_3" depart="24300.00" departLane="25122830#0_1" departPos="6.60" departSpeed="12.50" departDelay="0.00" arrival="24527.00" arrivalLane="-315358246_2" arrivalPos="99.50" arrivalSpeed="19.70" duration="227.00" routeLength="2352.16" waitingTime="35.00" waitingCount="2" stopTime="0.00" timeLoss="108.72" rerouteNo="1" devices="tripinfo_emv_3 routing_emv_3" vType="emergency_veh" speedFactor="1.50" vaporized=""/>
    <tripinfo id="emv_4" depart="25200.00" departLane="25122830#0_1" departPos="6.60" departSpeed="12.50" departDelay="0.00" arrival="25443.00" arrivalLane="-315358246_2" arrivalPos="99.50" arrivalSpeed="14.82" duration="243.00" routeLength="2350.11" waitingTime="58.00" waitingCount="6" stopTime="0.00" timeLoss="125.58" rerouteNo="1" devices="tripinfo_emv_4 routing_emv_4" vType="emergency_veh" speedFactor="1.50" vaporized=""/>
    <tripinfo id="emv_5" depart="26100.00" departLane="25122830#0_1" departPos="6.60" departSpeed="12.50" departDelay="0.00" arrival="26329.00" arrivalLane="-315358246_2" arrivalPos="99.50" arrivalSpeed="14.73" duration="229.00" routeLength="2352.16" waitingTime="56.00" waitingCount="4" stopTime="0.00" timeLoss="111.10" rerouteNo="1" devices="tripinfo_emv_5 routing_emv_5" vType="emergency_veh" speedFactor="1.50" vaporized=""/>
    <tripinfo id="emv_6" depart="27000.00" departLane="25122830#0_1" departPos="6.60" departSpeed="12.50" departDelay="0.00" arrival="27209.00" arrivalLane="-315358246_1" arrivalPos="99.50" arrivalSpeed="20.04" duration="209.00" routeLength="2352.16" waitingTime="47.00" waitingCount="3" stopTime="0.00" timeLoss="90.77" rerouteNo="1" devices="tripinfo_emv_6 routing_emv_6" vType="emergency_veh" speedFactor="1.50" vaporized=""/>
    <tripinfo id="emv_7" depart="27900.00" departLane="25122830#0_1" departPos="6.60" departSpeed="12.50" departDelay="0.00" arrival="28211.00" arrivalLane="-315358246_2" arrivalPos="99.50" arrivalSpeed="15.69" duration="311.00" routeLength="2243.63" waitingTime="82.00" waitingCount="4" stopTime="0.00" timeLoss="188.16" rerouteNo="1" devices="tripinfo_emv_7 routing_emv_7" vType="emergency_veh" speedFactor="1.50" vaporized=""/>
    <tripinfo id="emv_8" depart="28800.00" departLane="25122830#0_1" departPos="6.60" departSpeed="12.50" departDelay="0.00" arrival="29008.00" arrivalLane="-315358246_1" arrivalPos="99.50" arrivalSpeed="19.76" duration="208.00" routeLength="2243.63" waitingTime="35.00" waitingCount="3" stopTime="0.00" timeLoss="85.33" rerouteNo="1" devices="tripinfo_emv_8 routing_emv_8" vType="emergency_veh" speedFactor="1.50" vaporized=""/>
    <tripinfo id="emv_9" depart="29700.00" departLane="25122830#0_1" departPos="6.60" departSpeed="12.50" departDelay="0.00" arrival="29912.00" arrivalLane="-315358246_2" arrivalPos="99.50" arrivalSpeed="18.19" duration="212.00" routeLength="2350.11" waitingTime="13.00" waitingCount="2" stopTime="0.00" timeLoss="94.59" rerouteNo="1" devices="tripinfo_emv_9 routing_emv_9" vType="emergency_veh" speedFactor="1.50" vaporized=""/>
    <tripinfo id="emv_10" depart="30600.00" departLane="25122830#0_1" departPos="6.60" departSpeed="12.50" departDelay="0.00" arrival="30808.00" arrivalLane="-315358246_1" arrivalPos="99.50" arrivalSpeed="20.80" duration="208.00" routeLength="2243.63" waitingTime="46.00" waitingCount="3" stopTime="0.00" timeLoss="85.56" rerouteNo="1" devices="tripinfo_emv_10 routing_emv_10" vType="emergency_veh" speedFactor="1.50" vaporized=""/>
</tripinfos>
