<?xml version="1.0" encoding="UTF-8"?>

<!-- generated on 2023-10-02 15:37:31 by Eclipse SUMO sumo Version 1.12.0
<configuration xmlns:xsi="http://www.w3.org/2001/XMLSchema-instance" xsi:noNamespaceSchemaLocation="http://sumo.dlr.de/xsd/sumoConfiguration.xsd">

    <input>
        <net-file value="../../InTAS/scenario/ingolstadt.net.xml"/>
        <route-files value="../../InTAS/scenario/routes/InTAS_emv_1430_1800.rou.xml,../../InTAS/scenario/routes/InTAS_013_1.rou.xml,../../InTAS/scenario/routes/InTAS_014.rou.xml,../../InTAS/scenario/routes/InTAS_015.rou.xml,../../InTAS/scenario/routes/InTAS_016.rou.xml,../../InTAS/scenario/routes/InTAS_017.rou.xml,../../InTAS/scenario/routes/InTAS_018.rou.xml,../../InTAS/scenario/routes/InTAS_019_1.rou.xml"/>
        <additional-files value="../../InTAS/scenario/BusStations.add.xml,../../InTAS/scenario/InTAS_E1.add.xml,../../InTAS/scenario/InTAS.poly.xml"/>
    </input>

    <output>
        <summary-output value="../../InTAS/scenario/InTAS.simulation.summary.xml"/>
        <tripinfo-output value="../../InTAS/scenario/InTAS.simulation.tripinfo.xml"/>
        <statistic-output value="../../InTAS/scenario/InTAS.simulation.statistic.xml"/>
    </output>

    <time>
        <begin value="50000"/>
        <step-length value="1"/>
    </time>

    <processing>
        <threads value="1"/>
        <lateral-resolution value="1"/>
        <route-steps value="200"/>
        <ignore-junction-blocker value="15"/>
        <ignore-route-errors value="true"/>
        <time-to-teleport value="300"/>
        <time-to-teleport.highways value="300"/>
        <max-depart-delay value="300"/>
        <default.carfollowmodel value="Krauss"/>
        <parking.maneuver value="true"/>
        <pedestrian.model value="striping"/>
        <pedestrian.striping.stripe-width value="0.55"/>
        <pedestrian.striping.jamtime value="30"/>
    </processing>

    <routing>
        <routing-algorithm value="dijkstra"/>
        <persontrip.transfer.car-walk value="allJunctions"/>
        <device.rerouting.probability value="0.82"/>
        <device.rerouting.explicit value="default_001,default_002,default_003,default_004,default_005,default_006,default_007,default_008,default_009,default_010,default_011,default_012,default_013,default_014,default_015,default_016,default_017,default_018,default_019,default_020,default_021,default_022,random_001,random_002,random_003,random_004,random_005,random_006,random_007,random_008,random_009,random_010,random_011,random_012,random_013,random_014,random_015,random_016,random_017,random_018,random_019,random_020,random_021,random_022"/>
        <device.rerouting.period value="300"/>
        <device.rerouting.threads value="1"/>
        <device.rerouting.synchronize value="true"/>
    </routing>

    <report>
        <verbose value="true"/>
        <no-warnings value="true"/>
        <log value="../../InTAS/scenario/InTAS.simulation.log"/>
        <duration-log.statistics value="true"/>
    </report>

    <bluelight_device>
        <device.bluelight.explicit value="emv_0,emv_1,emv_2,emv_3,emv_4,emv_5,emv_6,emv_7,emv_8,emv_9,emv_10,emv_11,emv_12,emv_13,emv_14"/>
        <device.bluelight.reactiondist value="300"/>
    </bluelight_device>

    <tripinfo_device>
        <device.tripinfo.probability value="0"/>
    </tripinfo_device>

    <traci_server>
        <remote-port value="59927"/>
    </traci_server>

    <gui_only>
        <gui-settings-file value="../../InTAS/scenario/InTAS.view.xml"/>
        <tracker-interval value="1"/>
    </gui_only>

</configuration>
-->

<tripinfos xmlns:xsi="http://www.w3.org/2001/XMLSchema-instance" xsi:noNamespaceSchemaLocation="http://sumo.dlr.de/xsd/tripinfo_file.xsd">
    <tripinfo id="emv_0" depart="52200.00" departLane="25122830#0_1" departPos="6.60" departPosLat="0.00" departSpeed="12.50" departDelay="0.00" arrival="52407.00" arrivalLane="-315358246_2" arrivalPos="99.50" arrivalPosLat="0.52" arrivalSpeed="16.67" duration="207.00" routeLength="2352.16" waitingTime="9.00" waitingCount="5" stopTime="0.00" timeLoss="90.39" rerouteNo="1" devices="tripinfo_emv_0 routing_emv_0 bluelight_emv_0" vType="emergency_veh" speedFactor="1.50" vaporized="">
        <bluelight/>
    </tripinfo>
    <tripinfo id="emv_1" depart="53100.00" departLane="25122830#0_1" departPos="6.60" departPosLat="0.00" departSpeed="12.50" departDelay="0.00" arrival="53249.00" arrivalLane="-315358246_1" arrivalPos="99.50" arrivalPosLat="0.52" arrivalSpeed="20.66" duration="149.00" routeLength="2243.63" waitingTime="0.00" waitingCount="0" stopTime="0.00" timeLoss="26.52" rerouteNo="1" devices="tripinfo_emv_1 routing_emv_1 bluelight_emv_1" vType="emergency_veh" speedFactor="1.50" vaporized="">
        <bluelight/>
    </tripinfo>
    <tripinfo id="emv_2" depart="54000.00" departLane="25122830#0_1" departPos="6.60" departPosLat="0.00" departSpeed="12.50" departDelay="0.00" arrival="54178.00" arrivalLane="-315358246_1" arrivalPos="99.50" arrivalPosLat="1.48" arrivalSpeed="19.54" duration="178.00" routeLength="2352.16" waitingTime="18.00" waitingCount="3" stopTime="0.00" timeLoss="59.60" rerouteNo="1" devices="tripinfo_emv_2 routing_emv_2 bluelight_emv_2" vType="emergency_veh" speedFactor="1.50" vaporized="">
        <bluelight/>
    </tripinfo>
    <tripinfo id="emv_3" depart="54902.00" departLane="25122830#0_1" departPos="6.60" departPosLat="0.00" departSpeed="7.00" departDelay="2.00" arrival="55068.00" arrivalLane="-315358246_2" arrivalPos="99.50" arrivalPosLat="-0.12" arrivalSpeed="20.51" duration="166.00" routeLength="2350.11" waitingTime="0.00" waitingCount="0" stopTime="0.00" timeLoss="47.74" rerouteNo="1" devices="tripinfo_emv_3 routing_emv_3 bluelight_emv_3" vType="emergency_veh" speedFactor="1.50" vaporized="">
        <bluelight/>
    </tripinfo>
    <tripinfo id="emv_4" depart="55800.00" departLane="25122830#0_1" departPos="6.60" departPosLat="0.00" departSpeed="12.50" departDelay="0.00" arrival="55979.00" arrivalLane="-315358246_1" arrivalPos="99.50" arrivalPosLat="1.48" arrivalSpeed="19.95" duration="179.00" routeLength="2352.16" waitingTime="8.00" waitingCount="2" stopTime="0.00" timeLoss="61.04" rerouteNo="1" devices="tripinfo_emv_4 routing_emv_4 bluelight_emv_4" vType="emergency_veh" speedFactor="1.50" vaporized="">
        <bluelight/>
    </tripinfo>
    <tripinfo id="emv_5" depart="56700.00" departLane="25122830#0_1" departPos="6.60" departPosLat="0.00" departSpeed="12.50" departDelay="0.00" arrival="56854.00" arrivalLane="-315358246_2" arrivalPos="99.50" arrivalPosLat="-0.12" arrivalSpeed="20.78" duration="154.00" routeLength="2352.16" waitingTime="0.00" waitingCount="0" stopTime="0.00" timeLoss="35.56" rerouteNo="1" devices="tripinfo_emv_5 routing_emv_5 bluelight_emv_5" vType="emergency_veh" speedFactor="1.50" vaporized="">
        <bluelight/>
    </tripinfo>
    <tripinfo id="emv_6" depart="57600.00" departLane="25122830#0_1" departPos="6.60" departPosLat="0.00" departSpeed="12.50" departDelay="0.00" arrival="57771.00" arrivalLane="-315358246_2" arrivalPos="99.50" arrivalPosLat="-0.12" arrivalSpeed="14.20" duration="171.00" routeLength="2352.16" waitingTime="1.00" waitingCount="1" stopTime="0.00" timeLoss="53.47" rerouteNo="1" devices="tripinfo_emv_6 routing_emv_6 bluelight_emv_6" vType="emergency_veh" speedFactor="1.50" vaporized="">
        <bluelight/>
    </tripinfo>
    <tripinfo id="emv_7" depart="58500.00" departLane="25122830#0_1" departPos="6.60" departPosLat="0.00" departSpeed="12.50" departDelay="0.00" arrival="58674.00" arrivalLane="-315358246_2" arrivalPos="99.50" arrivalPosLat="-0.12" arrivalSpeed="20.15" duration="174.00" routeLength="2352.16" waitingTime="15.00" waitingCount="3" stopTime="0.00" timeLoss="55.86" rerouteNo="1" devices="tripinfo_emv_7 routing_emv_7 bluelight_emv_7" vType="emergency_veh" speedFactor="1.50" vaporized="">
        <bluelight/>
    </tripinfo>
    <tripinfo id="emv_8" depart="59400.00" departLane="25122830#0_1" departPos="6.60" departPosLat="0.00" departSpeed="12.50" departDelay="0.00" arrival="59549.00" arrivalLane="-315358246_2" arrivalPos="99.50" arrivalPosLat="0.48" arrivalSpeed="19.91" duration="149.00" routeLength="2352.16" waitingTime="1.00" waitingCount="1" stopTime="0.00" timeLoss="30.62" rerouteNo="1" devices="tripinfo_emv_8 routing_emv_8 bluelight_emv_8" vType="emergency_veh" speedFactor="1.50" vaporized="">
        <bluelight/>
    </tripinfo>
    <tripinfo id="emv_9" depart="60300.00" departLane="25122830#0_1" departPos="6.60" departPosLat="0.00" departSpeed="12.50" departDelay="0.00" arrival="60512.00" arrivalLane="-315358246_2" arrivalPos="99.50" arrivalPosLat="0.48" arrivalSpeed="15.01" duration="212.00" routeLength="2352.16" waitingTime="47.00" waitingCount="3" stopTime="0.00" timeLoss="94.01" rerouteNo="1" devices="tripinfo_emv_9 routing_emv_9 bluelight_emv_9" vType="emergency_veh" speedFactor="1.50" vaporized="">
        <bluelight/>
    </tripinfo>
    <tripinfo id="emv_10" depart="61200.00" departLane="25122830#0_1" departPos="6.60" departPosLat="0.00" departSpeed="12.50" departDelay="0.00" arrival="61374.00" arrivalLane="-315358246_1" arrivalPos="99.50" arrivalPosLat="1.52" arrivalSpeed="20.01" duration="174.00" routeLength="2352.16" waitingTime="7.00" waitingCount="3" stopTime="0.00" timeLoss="55.40" rerouteNo="1" devices="tripinfo_emv_10 routing_emv_10 bluelight_emv_10" vType="emergency_veh" speedFactor="1.50" vaporized="">
        <bluelight/>
    </tripinfo>
    <tripinfo id="emv_11" depart="62100.00" departLane="25122830#0_1" departPos="6.60" departPosLat="0.00" departSpeed="12.50" departDelay="0.00" arrival="62269.00" arrivalLane="-315358246_2" arrivalPos="99.50" arrivalPosLat="-0.12" arrivalSpeed="20.59" duration="169.00" routeLength="2243.63" waitingTime="8.00" waitingCount="1" stopTime="0.00" timeLoss="46.31" rerouteNo="1" devices="tripinfo_emv_11 routing_emv_11 bluelight_emv_11" vType="emergency_veh" speedFactor="1.50" vaporized="">
        <bluelight/>
    </tripinfo>
    <tripinfo id="emv_12" depart="63000.00" departLane="25122830#0_1" departPos="6.60" departPosLat="0.00" departSpeed="12.50" departDelay="0.00" arrival="63203.00" arrivalLane="-315358246_1" arrivalPos="99.50" arrivalPosLat="0.92" arrivalSpeed="20.48" duration="203.00" routeLength="2352.16" waitingTime="25.00" waitingCount="5" stopTime="0.00" timeLoss="84.87" rerouteNo="1" devices="tripinfo_emv_12 routing_emv_12 bluelight_emv_12" vType="emergency_veh" speedFactor="1.50" vaporized="">
        <bluelight/>
    </tripinfo>
    <tripinfo id="emv_13" depart="63900.00" departLane="25122830#0_1" departPos="6.60" departPosLat="0.00" departSpeed="12.50" departDelay="0.00" arrival="64057.00" arrivalLane="-315358246_2" arrivalPos="99.50" arrivalPosLat="-1.12" arrivalSpeed="20.39" duration="157.00" routeLength="2352.16" waitingTime="3.00" waitingCount="1" stopTime="0.00" timeLoss="38.59" rerouteNo="1" devices="tripinfo_emv_13 routing_emv_13 bluelight_emv_13" vType="emergency_veh" speedFactor="1.50" vaporized="">
        <bluelight/>
    </tripinfo>
    <tripinfo id="emv_14" depart="64800.00" departLane="25122830#0_1" departPos="6.60" departPosLat="0.00" departSpeed="12.50" departDelay="0.00" arrival="64937.00" arrivalLane="-315358246_2" arrivalPos="99.50" arrivalPosLat="-0.20" arrivalSpeed="19.69" duration="137.00" routeLength="2228.97" waitingTime="0.00" waitingCount="0" stopTime="0.00" timeLoss="15.92" rerouteNo="1" devices="tripinfo_emv_14 routing_emv_14 bluelight_emv_14" vType="emergency_veh" speedFactor="1.50" vaporized="">
        <bluelight/>
    </tripinfo>
</tripinfos>
